[
    {
        "AtomicNumber": "13",
        "Element": "Aluminum",
        "Symbol": "Al",
        "AtomicMass": "26.982",
        "NumberofNeutrons": "14",
        "NumberofProtons": "13",
        "NumberofElectrons": "13",
        "Period": "3",
        "Group": "13",
        "Phase": "solid",
        "Radioactive": "",
        "Natural": "yes",
        "Metal": "yes",
        "Nonmetal": "",
        "Metalloid": "",
        "Type": "Metal",
        "AtomicRadius": "1.8",
        "Electronegativity": "1.61",
        "FirstIonization": "5.9858",
        "Density": "2.70E+00",
        "MeltingPoint": "933.4",
        "BoilingPoint": "2792",
        "NumberOfIsotopes": "8",
        "Discoverer": "Wshler",
        "Year": "1827",
        "SpecificHeat": "0.897",
        "NumberofShells": "3",
        "NumberofValence": "3"
    },
    {
        "AtomicNumber": "47",
        "Element": "Silver",
        "Symbol": "Ag",
        "AtomicMass": "107.868",
        "NumberofNeutrons": "61",
        "NumberofProtons": "47",
        "NumberofElectrons": "47",
        "Period": "5",
        "Group": "11",
        "Phase": "solid",
        "Radioactive": "",
        "Natural": "yes",
        "Metal": "yes",
        "Nonmetal": "",
        "Metalloid": "",
        "Type": "Transition Metal",
        "AtomicRadius": "1.8",
        "Electronegativity": "1.93",
        "FirstIonization": "7.5762",
        "Density": "1.05E+01",
        "MeltingPoint": "1234.15",
        "BoilingPoint": "2435",
        "NumberOfIsotopes": "27",
        "Discoverer": "Prehistoric",
        "Year": "",
        "SpecificHeat": "0.235",
        "NumberofShells": "5",
        "NumberofValence": ""
    }
]