[
    {
        "AtomicNumber": "29",
        "Element": "Copper",
        "Symbol": "Cu",
        "AtomicMass": "63.546",
        "NumberofNeutrons": "35",
        "NumberofProtons": "29",
        "NumberofElectrons": "29",
        "Period": "4",
        "Group": "11",
        "Phase": "solid",
        "Radioactive": "",
        "Natural": "yes",
        "Metal": "yes",
        "Nonmetal": "",
        "Metalloid": "",
        "Type": "Transition Metal",
        "AtomicRadius": "1.6",
        "Electronegativity": "1.9",
        "FirstIonization": "7.7264",
        "Density": "8.96E+00",
        "MeltingPoint": "1357.75",
        "BoilingPoint": "2835",
        "NumberOfIsotopes": "11",
        "Discoverer": "Prehistoric",
        "Year": "",
        "SpecificHeat": "0.385",
        "NumberofShells": "4",
        "NumberofValence": ""
    },
    {
        "AtomicNumber": "92",
        "Element": "Uranium",
        "Symbol": "U",
        "AtomicMass": "238.029",
        "NumberofNeutrons": "146",
        "NumberofProtons": "92",
        "NumberofElectrons": "92",
        "Period": "7",
        "Group": "",
        "Phase": "solid",
        "Radioactive": "yes",
        "Natural": "yes",
        "Metal": "yes",
        "Nonmetal": "",
        "Metalloid": "",
        "Type": "Actinide",
        "AtomicRadius": "",
        "Electronegativity": "1.38",
        "FirstIonization": "6.1941",
        "Density": "1.90E+01",
        "MeltingPoint": "1405.15",
        "BoilingPoint": "4404",
        "NumberOfIsotopes": "15",
        "Discoverer": "Peligot",
        "Year": "1841",
        "SpecificHeat": "0.116",
        "NumberofShells": "7",
        "NumberofValence": ""
    }
]